# vtk DataFile Version 3.0
Particles dump, step=590, time=59.0000000000006, viscosity=17.7202160165967, height=1.13999599999882e-06
ASCII
DATASET POLYDATA
POINTS 1991 double
0.000364567797660986 0.000208831961561397 1.7478407319174e-06
0.000111655275296144 0.000139440733058949 1.7478407319353e-06
0.000333493901951371 8.07935574907702e-05 1.74784073195266e-06
0.000251102431589655 0.000243885474797896 1.74784073195266e-06
0.000120789907259479 0.000204550666831812 1.74784073195266e-06
0.00010216566471103 0.000244716619814795 1.74784073195266e-06
0.000343260060451926 0.000246587169703001 1.74784073195266e-06
0.000318362266041645 0.000245508451260156 1.74784073195266e-06
0.000201569685002524 3.18141863224632e-05 1.74784073194458e-06
0.000258785529225557 0.000242200887916345 1.74784073195266e-06
0.000205926121913359 0.000233006516508089 1.74784073195266e-06
0.000344009347299984 0.000147121925294894 1.74784073195266e-06
0.000310691795125644 0.000102648073457142 1.74784073195266e-06
0.000295993918008796 0.000268959232862552 1.74784073188917e-06
0.000374221280130321 6.77239762644113e-05 1.74784073195166e-06
0.000381803676664255 5.09569077185898e-05 1.74784073195266e-06
9.74881270803828e-05 0.000263649692047805 1.74784073195151e-06
0.000187362232602065 2.06839391914185e-05 1.74784073195266e-06
0.000219438069296416 0.000250689910723929 1.74784073195266e-06
0.00024144169003768 0.000192320413277801 1.74784073195337e-06
0.000350037289236597 0.000146454107727621 1.74784073195352e-06
0.000264174222585377 0.000157883273951524 1.74784073195266e-06
0.000256850394424959 0.000101925628445531 1.74784073194776e-06
0.000121033668085025 5.43927928847917e-05 1.74784073195266e-06
0.000264346947644041 0.000173744616171522 1.74784073195266e-06
3.75102955836639e-05 0.00020518667390683 1.74784073195266e-06
0.000397237245261182 0.000225680216309931 1.74784073195266e-06
0.000393853354889862 0.000150811993346105 1.74784073195266e-06
0.000305650903196699 7.75425967662803e-05 1.74784073195195e-06
0.000367616394210966 0.000237897266810538 1.74784073194543e-06
0.000408568555361891 0.000156749563589455 1.74784073197092e-06
0.000288077311566114 0.000269101237276938 1.74784073203837e-06
0.000341706279306968 2.35073082618882e-05 1.74784073195266e-06
0.000207945556298439 0.000170124839022295 1.74784073195266e-06
0.00010741304856183 0.000198181399296198 1.74784073195266e-06
9.45715225003048e-05 0.000214598686714917 1.74784073195266e-06
0.00035173926710348 2.60476310015565e-05 1.74784073195266e-06
0.000297023247949648 1.35948211682597e-05 1.74784073195836e-06
0.00038723697364256 0.000147509676488676 1.74784073195266e-06
1.1230806861836e-05 0.000168423848748077 1.74784073195266e-06
0.000250216955829118 0.000105928385034619 1.74784073195266e-06
0.00042432747058236 9.89789219755942e-06 1.74784073195266e-06
0.00040987232171957 5.29192405363553e-05 1.74784073195266e-06
9.21301402227142e-05 0.000222785267015105 1.74784073195266e-06
1.16046827109024e-05 0.000114029668524038 1.74784073195266e-06
0.000117440018639503 6.22990801479076e-05 1.74784073195266e-06
0.000148297600909705 5.51964318669181e-05 1.74784073195354e-06
1.88109285705557e-05 2.76967936651383e-05 1.74784073195266e-06
8.68293966645574e-05 9.37765487846471e-05 1.74784073198731e-06
0.000356894294908948 0.000253245658166919 1.74784073195266e-06
0.000292066441397459 0.000262027899001331 1.74784073195266e-06
0.000285820484465626 0.000228530536611785 1.74784073195266e-06
0.000107838595420452 0.00016502648889439 1.74784073195266e-06
7.71160911126191e-05 0.000130120720205525 1.74784073195342e-06
0.00024179089425179 0.000133318482246339 1.74784073195266e-06
0.000153817769092968 0.000228877943651136 1.74784073195266e-06
0.000236687741742698 2.57637652814414e-06 1.74784073195266e-06
0.000144610979181892 1.49156886125836e-05 1.74784073195266e-06
0.000100331239120096 0.00025533850747129 1.7478407319538e-06
0.000124668263966465 0.000101149198869771 1.74784073195266e-06
0.000273613789983973 0.000163205966999606 1.74784073195266e-06
0.000167921447175799 0.000108198835375286 1.74784073195266e-06
0.000421778872238173 4.94048979112381e-05 1.74784073195266e-06
0.000105387847232458 0.000170647511418746 1.74784073195266e-06
0.000379179194327519 0.000157401178750427 1.74784073195266e-06
0.000169897484759785 0.000187384640194338 1.74784073195499e-06
0.00028848242914095 1.39470974196424e-05 1.74784073195266e-06
0.000110764131919724 4.22116649563074e-05 1.74784073195266e-06
0.000210426273593957 0.000158856456647422 1.74784073195266e-06
0.000381227128403041 0.000140280416888492 1.7478407319696e-06
0.000201944435021136 0.000219072786791793 1.74784073195266e-06
0.00035309516143175 5.1759166569688e-05 1.74784073194186e-06
0.000271301259172109 2.21992822487216e-05 1.74784073195508e-06
0.000428269973653089 0.00010780268339639 1.74784073195266e-06
0.000134490247281149 6.05001044423028e-05 1.74784073195521e-06
0.000429269909788823 0.000224906367317466 1.74784073195355e-06
4.17163050116076e-05 3.39314379781402e-05 1.74784073198975e-06
0.000380049621416858 7.46461384048305e-05 1.74784073195266e-06
3.79963947458711e-05 0.000231746053690413 1.74784073195294e-06
3.67315999341615e-05 7.04861538054439e-05 1.74784073195266e-06
0.00033848231075734 0.000230460422278118 1.74784073195502e-06
0.000220834865609303 0.000171833299798012 1.74784073195266e-06
1.37870173349332e-05 0.000184201070817716 1.74784073195266e-06
0.000408563916939453 0.000256428887723856 1.74784073195266e-06
2.15712736486293e-05 0.000204459981042957 1.74784073198285e-06
0.000277046365772451 0.00018715502415004 1.74784073194113e-06
0.000274473729934363 0.000101107597939109 1.74784073195266e-06
8.83300318527656e-05 0.000157728738330324 1.74784073195266e-06
6.31816648492852e-05 8.38974027831591e-05 1.74784073195266e-06
0.000314435469202819 9.25255040134554e-05 1.74784073195266e-06
1.79807174319264e-05 4.26222586535103e-05 1.74784073195266e-06
0.000129891828185344 0.000105851514173125 1.74784073199442e-06
0.000131287965808535 0.000134510529702625 1.74784073196987e-06
2.4721347405756e-05 5.10218304316355e-05 1.74784073195266e-06
3.09875371319534e-05 0.000111302400806707 1.74784073195547e-06
0.000181964180389285 2.8030526087604e-05 1.74784073195266e-06
0.000200952488313005 0.000227841764715319 1.74784073195266e-06
0.000146691351982683 0.000131954053438597 1.74784073195266e-06
0.000187181267739298 7.67497554779742e-05 1.74784073195266e-06
0.000381443021957246 0.000247814195903797 1.74784073195266e-06
0.000162656942437505 0.000265695295173613 1.74784073195266e-06
3.34259061073289e-05 1.88516457002172e-05 1.74784073195266e-06
2.42661586258852e-05 0.000268690918786248 1.74784073195266e-06
0.000226846827956777 0.000123994025200655 1.74784073195266e-06
0.000253356836256505 0.000185122676423741 1.74784073195266e-06
0.000167055448660816 2.14134831709711e-06 1.74784073195266e-06
0.000338015541394378 0.000112164554204691 1.74784073194009e-06
2.62240423807947e-05 0.000238221861028977 1.74784073195285e-06
0.000387562358254679 0.000116929783733433 1.74784073193678e-06
5.16373878732598e-05 0.000111106252137101 1.74784073195266e-06
1.50989843722719e-05 0.000257579601812573 1.74784073195582e-06
6.10366276161069e-05 5.72583169935034e-05 1.74784073192612e-06
0.000233168682399488 4.03856336424574e-05 1.74784073194933e-06
0.000418074981236722 4.12481615591659e-05 1.74784073195266e-06
0.000290663459977931 0.0002353285690214 1.74784073195266e-06
0.000400482665832802 8.2960960221887e-05 1.74784073195266e-06
0.000208750888669217 0.000183457473558337 1.74784073196633e-06
0.000257688871085012 6.15600920210049e-05 1.74784073193856e-06
0.000416232274036953 0.00024646109747119 1.74784073195266e-06
1.14181273508585e-05 3.64712230315642e-05 1.74784073195266e-06
0.000334832248477709 0.00022535916224727 1.74784073195266e-06
0.000310519294197786 0.000218870129050144 1.74784073195224e-06
3.10676509077293e-05 0.000233988506381469 1.74784073195266e-06
9.05755384471538e-05 1.01717957356732e-05 1.74784073194851e-06
0.000365876898641023 9.52225450390145e-05 1.74784073195266e-06
6.75593797387626e-05 0.000181725245196486 1.74784073195266e-06
0.000215324372169638 0.000243274647162117 1.74784073196009e-06
0.000249450702340194 0.000178823199541795 1.74784073195266e-06
0.000326825251818099 0.000265468715648616 1.74784073195266e-06
0.000394516143022743 5.44347391607373e-05 1.74784073195266e-06
0.00025616269023646 0.00022142503028993 1.74784073196245e-06
0.000340781278980915 0.000101691906193558 1.74784073195266e-06
0.000365336261484358 0.00021583557078325 1.7478407319552e-06
0.000114889518786708 1.97130416202028e-05 1.74784073194251e-06
0.00040872161295462 8.4114679735676e-05 1.74784073195266e-06
0.000353765055190914 1.23772754021861e-05 1.74784073195266e-06
5.15797458625355e-05 7.58415604181675e-05 1.74784073195266e-06
2.13690188559988e-05 4.35761046409368e-06 1.74784073195266e-06
0.000211103473826451 0.000230304350137447 1.74784073195266e-06
0.000295735257873462 4.00424413237377e-05 1.74784073195266e-06
0.000169423398710265 0.000166850500102111 1.74784073195266e-06
2.51456464029373e-05 0.000132102908509669 1.74784073195266e-06
1.36081138240834e-05 0.000158573003146265 1.74784073195266e-06
4.64607152090807e-05 0.000149643705337242 1.74784073195266e-06
0.000165236235683142 0.000209480401109775 1.74784073195266e-06
0.000381528132480312 0.000163341932500213 1.74784073195266e-06
0.000269414173353311 9.07697590466354e-05 1.74784073195266e-06
0.000285685936500405 0.00016190206836262 1.74784073195266e-06
5.29759992472724e-05 0.000247433949528434 1.74784073195266e-06
0.000390009141567316 0.000230113875803245 1.74784073195266e-06
0.000348694319748492 0.000139579803460575 1.74784073195266e-06
8.08016015708051e-05 0.000210152125864037 1.74784073195386e-06
0.000317688475513802 0.000126107257907552 1.74784073192693e-06
3.50766196760406e-05 1.08410687139234e-05 1.74784073195041e-06
0.000208907230757935 0.000239194250057234 1.74784073195266e-06
0.000280309841748919 0.000153361285807216 1.74784073195266e-06
[...]
POINT_DATA 1991
SCALARS id int 1
LOOKUP_TABLE default
0
1
2
3
4
5
6
7
8
9
10
11
12
13
14
15
16
17
18
19
20
21
22
23
24
25
26
27
28
29
30
31
32
33
34
35
36
37
38
39
40
41
42
43
44
45
46
47
48
49
50
51
52
53
54
55
56
57
58
59
60
61
62
63
64
65
66
67
68
69
70
71
72
73
74
75
76
77
78
79
80
81
82
83
84
85
86
87
88
89
90
91
92
93
94
95
96
97
98
99
100
101
102
103
104
105
106
107
108
109
110
111
112
113
114
115
116
117
118
119
120
121
122
123
124
125
126
127
128
129
130
131
132
133
134
135
136
137
138
139
140
141
142
143
144
145
146
147
148
149
150
151
152
153
154
155
156
157
158
159
160
161
162
163
164
165
166
167
168
169
170
171
172
173
174
175
176
177
178
179
180
181
182
183
184
185
186
187
188
189
190
191
192
193
194
195
196
197
198
199
200
201
202
203
204
205
206
207
208
209
210
211
212
213
214
215
216
217
218
219
220
221
222
223
224
225
226
227
228
229
230
231
232
233
234
235
236
237
238
239
240
241
242
243
244
245
246
247
248
249
250
251
252
253
254
255
256
257
258
259
260
261
262
263
264
265
266
267
268
269
270
271
272
273
274
275
276
277
278
279
280
281
282
283
284
285
286
287
288
289
290
291
292
293
294
295
296
297
298
299
300
301
302
303
304
305
306
307
308
309
310
311
312
313
314
315
316
317
318
319
320
321
322
323
324
325
326
327
328
329
330
331
332
333
334
335
336
337
338
339
340
341
342
343
344
345
346
347
348
349
350
351
352
353
354
355
356
357
358
359
360
361
362
363
364
365
366
367
368
369
370
371
372
373
374
375
376
377
378
379
380
381
382
383
384
385
386
387
388
389
390
391
392
393
394
395
396
397
398
399
400
401
402
403
404
405
406
407
408
409
410
411
412
413
414
415
416
417
418
419
420
421
422
423
424
425
426
427
428
429
430
431
432
433
434
435
436
437
438
439
440
441
442
443
444
445
446
447
448
449
450
451
452
453
454
455
456
457
458
459
460
461
462
463
464
465
466
467
468
469
470
471
472
473
474
475
476
477
478
479
480
481
482
483
484
485
486
487
488
489
490
491
492
493
494
495
496
497
498
499
500
501
502
503
504
505
506
507
508
509
510
511
512
513
514
515
516
517
518
519
520
521
522
523
524
525
526
527
528
529
530
531
532
533
534
535
536
537
538
539
540
541
542
543
544
545
546
547
548
549
550
551
552
553
554
555
556
557
558
559
560
561
562
563
564
565
566
567
568
569
570
571
572
573
574
575
576
577
578
579
580
581
582
583
584
585
586
587
588
589
590
591
592
593
594
595
596
597
598
599
600
601
602
603
604
605
606
607
608
609
610
611
612
613
614
615
616
617
618
619
620
621
622
623
624
625
626
627
628
629
630
631
632
633
634
635
636
637
638
639
640
641
642
643
644
645
646
647
648
649
650
651
652
653
654
655
656
657
658
659
660
661
662
663
664
665
666
667
668
669
670
671
672
673
674
675
676
677
678
679
680
681
682
683
684
685
686
687
688
689
690
691
692
693
694
695
696
697
698
699
700
701
702
703
704
705
706
707
708
709
710
711
712
713
714
715
716
717
718
719
720
721
722
723
724
725
726
727
728
729
730
731
732
733
734
735
736
737
738
739
740
741
742
743
744
745
746
747
748
749
750
751
752
753
754
755
756
757
758
759
760
761
762
763
764
765
766
767
768
769
770
771
772
773
774
775
776
777
778
779
780
781
782
783
784
785
786
787
788
789
790
791
792
793
794
795
796
797
798
799
800
801
802
803
804
805
806
807
808
809
810
811
812
813
814
815
816
817
818
819
820
821
822
823
824
825
826
827
828
829
830
831
832
833
834
835
836
837
838
839
840
841
842
843
844
845
846
847
848
849
850
851
852
853
854
855
856
857
858
859
860
861
862
863
864
865
866
867
868
869
870
871
872
873
874
875
876
877
878
879
880
881
882
883
884
885
886
887
888
889
890
891
892
893
894
895
896
897
898
899
900
901
902
903
904
905
906
907
908
909
910
911
912
913
914
915
916
917
918
919
920
921
922
923
924
925
926
927
928
929
930
931
932
933
934
935
936
937
938
939
940
941
942
943
944
945
946
947
948
949
950
951
952
953
954
955
956
957
958
959
960
961
962
963
964
965
966
967
968
969
970
971
972
973
974
975
976
977
978
979
980
981
982
983
984
985
986
987
988
989
990
991
992
993
994
995
996
997
998
999
1000
1001
1002
1003
1004
1005
1006
1007
1008
1009
1010
1011
1012
1013
1014
1015
1016
1017
1018
1019
1020
1021
1022
1023
1024
1025
1026
1027
1028
1029
1030
1031
1032
1033
1034
1035
1036
1037
1038
1039
1040
1041
1042
1043
1044
1045
1046
1047
1048
1049
1050
1051
1052
1053
1054
1055
1056
1057
1058
1059
1060
1061
1062
1063
1064
1065
1066
1067
1068
1069
1070
1071
1072
1073
1074
1075
1076
1077
1078
1079
1080
1081
1082
1083
1084
1085
1086
1087
1088
1089
1090
1091
1092
1093
1094
1095
1096
1097
1098
1099
1100
1101
1102
1103
1104
1105
1106
1107
1108
1109
1110
1111
1112
1113
1114
1115
1116
1117
1118
1119
1120
1121
1122
1123
1124
1125
1126
1127
1128
1129
1130
1131
1132
1133
1134
1135
1136
1137
1138
1139
1140
1141
1142
1143
1144
1145
1146
1147
1148
1149
1150
1151
1152
1153
1154
1155
1156
1157
1158
1159
1160
1161
1162
1163
1164
1165
1166
1167
1168
1169
1170
1171
1172
1173
1174
1175
1176
1177
1178
1179
1180
1181
1182
1183
1184
1185
1186
1187
1188
1189
1190
1191
1192
1193
1194
1195
1196
1197
1198
1199
1200
1201
1202
1203
1204
1205
1206
1207
1208
1209
1210
1211
1212
1213
1214
1215
1216
1217
1218
1219
1220
1221
1222
1223
1224
1225
1226
1227
1228
1229
1230
1231
1232
1233
1234
1235
1236
1237
1238
1239
1240
1241
1242
1243
1244
1245
1246
1247
1248
1249
1250
1251
1252
1253
1254
1255
1256
1257
1258
1259
1260
1261
1262
1263
1264
1265
1266
1267
1268
1269
1270
1271
1272
1273
1274
1275
1276
1277
1278
1279
1280
1281
1282
1283
1284
1285
1286
1287
1288
1289
1290
1291
1292
1293
1294
1295
1296
1297
1298
1299
1300
1301
1302
1303
1304
1305
1306
1307
1308
1309
1310
1311
1312
1313
1314
1315
1316
1317
1318
1319
1320
1321
1322
1323
1324
1325
1326
1327
1328
1329
1330
1331
1332
1333
1334
1335
1336
1337
1338
1339
1340
1341
1342
1343
1344
1345
1346
1347
1348
1349
1350
1351
1352
1353
1354
1355
1356
1357
1358
1359
1360
1361
1362
1363
1364
1365
1366
1367
1368
1369
1370
1371
1372
1373
1374
1375
1376
1377
1378
1379
1380
1381
1382
1383
1384
1385
1386
1387
1388
1389
1390
1391
1392
1393
1394
1395
1396
1397
1398
1399
1400
1401
1402
1403
1404
1405
1406
1407
1408
1409
1410
1411
1412
1413
1414
1415
1416
1417
1418
1419
1420
1421
1422
1423
1424
1425
1426
1427
1428
1429
1430
1431
1432
1433
1434
1435
1436
1437
1438
1439
1440
1441
1442
1443
1444
1445
1446
1447
1448
1449
1450
1451
1452
1453
1454
1455
1456
1457
1458
1459
1460
1461
1462
1463
1464
1465
1466
1467
1468
1469
1470
1471
1472
1473
1474
1475
1476
1477
1478
1479
1480
1481
1482
1483
1484
1485
1486
1487
1488
1489
1490
1491
1492
1493
1494
1495
1496
1497
1498
1499
1500
1501
1502
1503
1504
1505
1506
1507
1508
1509
1510
1511
1512
1513
1514
1515
1516
1517
1518
1519
1520
1521
1522
1523
1524
1525
1526
1527
1528
1529
1530
1531
1532
1533
1534
1535
1536
1537
1538
1539
1540
1541
1542
1543
1544
1545
1546
1547
1548
1549
1550
1551
1552
1553
1554
1555
1556
1557
1558
1559
1560
1561
1562
1563
1564
1565
1566
1567
1568
1569
1570
1571
1572
1573
1574
1575
1576
1577
1578
1579
1580
1581
1582
1583
1584
1585
1586
1587
1588
1589
1590
1591
1592
1593
1594
1595
1596
1597
1598
1599
1600
1601
1602
1603
1604
1605
1606
1607
1608
1609
1610
1611
1612
1613
1614
1615
1616
1617
1618
1619
1620
1621
1622
1623
1624
1625
1626
1627
1628
1629
1630
1631
1632
1633
1634
1635
1636
1637
1638
1639
1640
1641
1642
1643
1644
1645
1646
1647
1648
1649
1650
1651
1652
1653
1654
1655
1656
1657
1658
1659
1660
1661
1662
1663
1664
1665
1666
1667
1668
1669
1670
1671
1672
1673
1674
1675
1676
1677
1678
1679
1680
1681
1682
1683
1684
1685
1686
1687
1688
1689
1690
1691
1692
1693
1694
1695
1696
1697
1698
1699
1700
1701
1702
1703
1704
1705
1706
1707
1708
1709
1710
1711
1712
1713
1714
1715
1716
1717
1718
1719
1720
1721
1722
1723
1724
1725
1726
1727
1728
1729
1730
1731
1732
1733
1734
1735
1736
1737
1738
1739
1740
1741
1742
1743
1744
1745
1746
1747
1748
1749
1750
1751
1752
1753
1754
1755
1756
1757
1758
1759
1760
1761
1762
1763
1764
1765
1766
1767
1768
1769
1770
1771
1772
1773
1774
1775
1776
1777
1778
1779
1780
1781
1782
1783
1784
1785
1786
1787
1788
1789
1790
1791
1792
1793
1794
1795
1796
1797
1798
1799
1800
1801
1802
1803
1804
1805
1806
1807
1808
1809
1810
1811
1812
1813
1814
1815
1816
1817
1818
1819
1820
1821
1822
1823
1824
1825
1826
1827
1828
1829
1830
1831
1832
1833
1834
1835
1836
1837
1838
1839
1840
1841
1842
1843
1844
1845
1846
1847
1848
1849
1850
1851
1852
1853
1854
1855
1856
1857
1858
1859
1860
1861
1862
1863
1864
1865
1866
1867
1868
1869
1870
1871
1872
1873
1874
1875
1876
1877
1878
1879
1880
1881
1882
1883
1884
1885
1886
1887
1888
1889
1890
1891
1892
1893
1894
1895
1896
1897
1898
1899
1900
1901
1902
1903
1904
1905
1906
1907
1908
1909
1910
1911
1912
1913
1914
1915
1916
1917
1918
1919
1920
1921
1922
1923
1924
1925
1926
1927
1928
1929
1930
1931
1932
1933
1934
1935
1936
1937
1938
1939
1940
1941
1942
1943
1944
1945
1946
1947
1948
1949
1950
1951
1952
1953
1954
1955
1956
1957
1958
1959
1960
1961
1962
1963
1964
1965
1966
1967
1968
1969
1970
1971
1972
1973
1974
1975
1976
1977
1978
1979
1980
1981
1982
1983
1984
1985
1986
1987
1988
1989
1990
SCALARS box int 1
LOOKUP_TABLE default
29
19
10
33
25
31
34
34
2
33
32
22
16
34
11
11
31
2
33
27
22
21
15
7
21
24
35
23
10
35
23
34
4
20
25
25
4
4
23
18
15
5
11
25
12
7
8
0
13
34
34
33
19
13
15
32
3
2
31
13
21
14
11
19
23
26
4
1
20
23
26
10
3
17
7
29
0
11
30
6
34
21
24
35
24
27
15
19
6
16
0
13
13
6
12
2
32
14
8
35
32
0
30
15
27
2
16
30
17
12
30
6
3
5
34
11
26
9
35
0
34
28
30
1
17
24
33
21
34
11
27
16
29
1
11
4
6
0
32
4
20
12
18
18
26
23
15
21
30
35
22
25
16
0
32
21
30
28
1
33
4
4
29
12
2
4
7
5
2
5
32
17
31
9
18
35
7
13
0
12
4
32
14
32
19
16
16
32
20
31
3
22
24
28
10
30
19
2
3
7
8
21
20
28
20
16
24
14
16
6
18
32
3
28
0
30
10
1
7
17
22
17
26
7
3
1
18
21
9
14
33
35
26
1
23
28
32
2
10
1
8
7
10
13
30
26
34
0
16
28
19
35
20
9
20
4
7
27
5
24
28
31
21
9
3
2
24
22
25
16
33
22
2
21
17
11
34
2
34
26
25
20
0
0
3
17
13
7
16
16
17
5
27
25
1
24
0
21
18
28
5
7
26
19
31
29
25
24
21
25
9
11
31
27
32
25
22
20
22
30
32
28
15
1
0
22
7
29
21
33
32
1
29
15
31
26
26
5
29
3
11
32
26
10
20
15
1
29
21
1
12
4
18
33
3
10
10
35
23
21
15
2
15
27
4
33
6
13
13
28
5
32
2
13
6
20
3
29
19
16
2
8
6
9
29
7
7
32
12
5
2
18
16
32
1
33
14
20
33
17
15
12
5
24
32
29
6
33
27
10
18
10
2
12
24
22
7
27
29
2
17
17
26
29
35
23
29
0
34
22
33
4
16
20
26
27
35
35
21
16
12
18
15
30
15
4
9
0
30
18
23
26
33
30
10
32
2
13
10
16
14
16
26
17
26
17
8
31
12
21
15
4
11
23
6
24
1
5
11
5
31
16
22
27
21
30
25
15
9
0
8
20
10
4
16
13
19
35
6
33
30
16
8
28
10
22
9
9
12
25
16
35
10
14
33
24
17
33
6
33
18
20
23
26
28
5
3
9
13
26
6
3
8
29
12
13
26
23
9
30
32
26
15
16
4
17
10
17
11
11
4
25
24
15
20
30
7
4
9
10
29
27
9
16
12
25
7
35
22
32
34
7
18
6
32
19
3
11
28
19
15
30
30
16
14
7
23
14
4
3
15
26
26
13
16
34
19
22
14
20
6
25
31
4
18
20
20
28
15
11
19
21
35
5
23
31
27
30
31
32
10
25
2
28
4
29
21
0
0
35
33
32
15
35
35
29
7
18
4
25
18
8
21
14
19
12
21
26
26
17
4
1
20
3
5
19
4
22
12
17
11
23
14
31
35
13
1
21
30
22
4
13
14
18
19
17
0
8
30
15
3
24
4
2
35
23
6
25
30
18
24
29
3
2
7
11
28
8
12
5
34
32
10
8
32
21
14
18
27
7
32
9
5
19
14
3
10
17
1
20
7
27
0
30
6
27
9
26
18
16
8
0
35
2
30
15
18
23
0
4
25
3
13
20
6
22
11
29
33
22
11
11
14
24
15
3
11
26
0
33
4
25
26
23
3
23
21
20
33
0
5
10
16
31
22
0
15
14
15
22
9
29
7
11
26
4
28
34
3
18
29
34
1
18
29
28
12
20
10
21
32
35
21
14
3
14
7
3
5
13
12
25
24
2
11
21
17
17
35
0
27
24
34
32
12
3
34
9
33
4
16
14
24
3
14
29
31
4
25
29
25
30
10
35
31
9
21
28
31
34
15
4
22
22
25
2
9
35
29
17
14
21
28
17
28
26
28
19
8
24
28
20
30
30
12
3
12
31
18
26
8
33
28
1
7
8
28
1
13
31
19
25
12
4
33
0
25
34
15
3
34
12
5
2
0
21
19
7
18
21
11
28
5
27
28
27
14
22
16
11
31
8
17
8
11
31
13
29
17
31
30
31
24
4
2
19
1
22
2
29
8
6
33
22
34
28
13
29
10
14
35
12
35
3
5
19
21
23
24
8
30
18
28
33
20
20
29
17
18
34
3
12
22
17
21
20
11
24
1
2
17
16
15
34
25
6
27
6
27
25
13
29
7
10
9
3
1
15
25
29
8
23
24
7
30
16
10
3
8
35
26
25
33
12
2
35
3
24
5
11
28
15
11
8
17
23
0
5
3
5
31
0
1
15
33
19
20
23
28
11
21
5
20
9
27
17
21
13
8
27
14
31
24
13
31
28
31
1
8
12
35
16
16
27
18
26
2
25
24
24
15
13
34
11
5
15
10
10
33
3
7
7
21
31
32
29
23
14
7
18
11
30
19
10
3
34
34
26
16
26
15
31
29
10
5
6
31
9
21
13
16
4
19
30
4
6
32
15
32
1
12
31
28
0
8
6
8
13
14
18
11
35
19
16
15
17
4
18
21
15
0
13
7
2
32
31
30
25
28
6
11
13
7
15
23
10
19
4
2
16
19
24
19
18
24
9
14
23
21
8
30
35
2
35
6
29
32
7
8
14
23
2
20
31
23
25
27
16
3
11
14
6
26
17
21
10
7
13
23
16
18
24
16
25
13
6
19
14
25
14
34
9
34
6
3
3
19
33
12
3
0
33
29
9
7
6
1
6
27
4
31
34
6
4
12
5
29
5
13
6
5
26
14
9
27
32
30
3
34
13
14
2
25
13
29
26
27
20
0
34
34
21
19
33
20
16
21
28
16
35
32
28
30
20
15
7
34
25
21
29
34
7
13
32
30
15
9
20
15
26
25
9
20
13
23
20
10
35
32
24
32
8
32
33
27
28
0
14
24
20
35
21
19
21
5
24
25
23
16
33
18
31
28
3
27
8
28
31
28
18
27
19
9
24
20
0
6
6
4
20
0
10
26
11
0
27
34
34
25
28
34
13
22
8
22
35
20
6
30
10
7
0
1
6
30
24
28
5
5
30
10
27
6
10
27
10
23
34
16
22
3
0
34
17
19
18
17
9
8
32
32
1
6
2
33
7
33
13
30
3
33
29
1
27
17
8
9
7
5
7
17
27
5
34
20
22
9
14
22
17
6
26
22
13
34
0
26
0
11
23
11
33
4
29
11
9
34
0
33
11
13
23
33
35
33
1
15
18
3
25
12
27
20
20
1
27
26
11
16
34
2
7
25
26
22
11
7
23
1
18
0
35
8
12
23
2
7
21
14
2
35
1
26
15
23
19
31
24
14
5
8
1
1
12
0
23
27
17
23
13
0
20
34
12
10
17
9
32
33
34
9
0
10
23
17
13
1
6
16
13
10
1
9
6
0
24
8
22
22
2
32
20
25
13
5
22
3
18
24
17
24
17
9
21
2
20
19
18
2
4
9
10
8
10
13
4
14
27
9
16
24
35
9
26
13
2
7
21
29
11
6
25
6
16
1
25
17
34
31
16
7
8
12
19
11
12
18
20
4
27
25
35
16
26
27
2
22
13
5
35
19
17
23
12
21
25
33
19
18
23
9
27
2
15
23
0
24
28
30
7
12
22
31
13
23
18
29
17
11
26
14
31
32
15
11
9
30
28
13
3
35
26
9
8
29
8
6
30
12
13
20
17
8
30
8
29
31
12
6
8
24
9
30
9
8
5
12
6
17
12
23
10
22
25
28
31
8
4
18
14
31
1
9
23
24
10
13
10
29
22
11
31
14
28
19
29
34
14
24
9
8
12
5
0
1
5
32
18
31
29
20
1
20
17
14
10
35
14
7
34
25
19
28
8
11
9
21
11
4
21
10
22
14
32
24
30
8
24
19
13
31
16
18
3
1
24
15
6
11
34
31
35
34
20
19
28
18
27
11
23
14
12
28
35
3
23
18
14
29
30
31
10
27
34
32
33
13
6
25
22
31
7
6
21
12
21
30
6
21
1
34
4
8
12
27
19
0
9
5
10
21
14
28
13
4
24
25
19
25
15
24
30
2
1
21
9
23
3
23
2
17
4
32
22
18
13
35
12
30
7
16
2
0
21
33
12
31
17
0
22
29
0
33
30
26
35
27
32
18
22
33
27
28
17
22
5
31
20
24
10
13
10
9
1
9
27
4
27
29
28
12
17
5
4
20
0
3
28
12
33
7
23
29
17
10
15
11
32
29
1
1
16
10
1
1
35
33
5
13
7
24
25
26
18
10
1
24
8
12
6
3
35
22
33
18
33
27
19
32
9
27
24
4
18
22
34
31
6
20
12
11
18
33
29
35
27
14
15
31
26
29
32
17
22
14
33
26
14
24
27
19
19
12
33
2
17
25
27
28
19
28
2
1
20
6
1
21
15
22
16
8
30
24
15
18
30
3
1
12
22
16
35
26
5
5
25
16
8
3
22
17
SCALARS rad double 1
LOOKUP_TABLE default
1.75e-06
1.75e-06
1.75e-06
1.75e-06
1.75e-06
1.75e-06
1.75e-06
1.75e-06
1.75e-06
1.75e-06
1.75e-06
1.75e-06
1.75e-06
1.75e-06
1.75e-06
1.75e-06
1.75e-06
1.75e-06
1.75e-06
1.75e-06
1.75e-06
1.75e-06
1.75e-06
1.75e-06
1.75e-06
1.75e-06
1.75e-06
1.75e-06
1.75e-06
1.75e-06
1.75e-06
1.75e-06
1.75e-06
1.75e-06
1.75e-06
1.75e-06
1.75e-06
1.75e-06
1.75e-06
1.75e-06
1.75e-06
1.75e-06
1.75e-06
1.75e-06
1.75e-06
1.75e-06
1.75e-06
1.75e-06
1.75e-06
1.75e-06
1.75e-06
1.75e-06
1.75e-06
1.75e-06
1.75e-06
1.75e-06
1.75e-06
1.75e-06
1.75e-06
1.75e-06
1.75e-06
1.75e-06
1.75e-06
1.75e-06
1.75e-06
1.75e-06
1.75e-06
1.75e-06
1.75e-06
1.75e-06
1.75e-06
1.75e-06
1.75e-06
1.75e-06
1.75e-06
1.75e-06
1.75e-06
1.75e-06
1.75e-06
1.75e-06
1.75e-06
1.75e-06
1.75e-06
1.75e-06
1.75e-06
1.75e-06
1.75e-06
1.75e-06
1.75e-06
1.75e-06
1.75e-06
1.75e-06
1.75e-06
1.75e-06
1.75e-06
1.75e-06
1.75e-06
1.75e-06
1.75e-06
1.75e-06
1.75e-06
1.75e-06
1.75e-06
1.75e-06
1.75e-06
1.75e-06
1.75e-06
1.75e-06
1.75e-06
1.75e-06
1.75e-06
1.75e-06
1.75e-06
1.75e-06
1.75e-06
1.75e-06
1.75e-06
1.75e-06
1.75e-06
1.75e-06
1.75e-06
1.75e-06
1.75e-06
1.75e-06
1.75e-06
1.75e-06
1.75e-06
1.75e-06
1.75e-06
1.75e-06
1.75e-06
1.75e-06
1.75e-06
1.75e-06
1.75e-06
1.75e-06
1.75e-06
1.75e-06
1.75e-06
1.75e-06
1.75e-06
1.75e-06
1.75e-06
1.75e-06
1.75e-06
1.75e-06
1.75e-06
1.75e-06
1.75e-06
1.75e-06
1.75e-06
1.75e-06
1.75e-06
1.75e-06
1.75e-06
1.75e-06
1.75e-06
1.75e-06
1.75e-06
1.75e-06
1.75e-06
1.75e-06
1.75e-06
1.75e-06
1.75e-06
1.75e-06
1.75e-06
1.75e-06
1.75e-06
1.75e-06
1.75e-06
1.75e-06
1.75e-06
1.75e-06
1.75e-06
1.75e-06
1.75e-06
1.75e-06
1.75e-06
1.75e-06
1.75e-06
1.75e-06
1.75e-06
1.75e-06
1.75e-06
1.75e-06
1.75e-06
1.75e-06
1.75e-06
1.75e-06
1.75e-06
1.75e-06
1.75e-06
1.75e-06
1.75e-06
1.75e-06
1.75e-06
1.75e-06
1.75e-06
1.75e-06
1.75e-06
1.75e-06
1.75e-06
1.75e-06
1.75e-06
1.75e-06
1.75e-06
1.75e-06
1.75e-06
1.75e-06
1.75e-06
1.75e-06
1.75e-06
1.75e-06
1.75e-06
1.75e-06
1.75e-06
1.75e-06
1.75e-06
1.75e-06
1.75e-06
1.75e-06
1.75e-06
1.75e-06
1.75e-06
1.75e-06
1.75e-06
1.75e-06
1.75e-06
1.75e-06
1.75e-06
1.75e-06
1.75e-06
1.75e-06
1.75e-06
1.75e-06
1.75e-06
1.75e-06
1.75e-06
1.75e-06
1.75e-06
1.75e-06
1.75e-06
1.75e-06
1.75e-06
1.75e-06
1.75e-06
1.75e-06
1.75e-06
1.75e-06
1.75e-06
1.75e-06
1.75e-06
1.75e-06
1.75e-06
1.75e-06
1.75e-06
1.75e-06
1.75e-06
1.75e-06
1.75e-06
1.75e-06
1.75e-06
1.75e-06
1.75e-06
1.75e-06
1.75e-06
1.75e-06
1.75e-06
1.75e-06
1.75e-06
1.75e-06
1.75e-06
1.75e-06
1.75e-06
1.75e-06
1.75e-06
1.75e-06
1.75e-06
1.75e-06
1.75e-06
1.75e-06
1.75e-06
1.75e-06
1.75e-06
1.75e-06
1.75e-06
1.75e-06
1.75e-06
1.75e-06
1.75e-06
1.75e-06
1.75e-06
1.75e-06
1.75e-06
1.75e-06
1.75e-06
1.75e-06
1.75e-06
1.75e-06
1.75e-06
1.75e-06
1.75e-06
1.75e-06
1.75e-06
1.75e-06
1.75e-06
1.75e-06
1.75e-06
1.75e-06
1.75e-06
1.75e-06
1.75e-06
1.75e-06
1.75e-06
1.75e-06
1.75e-06
1.75e-06
1.75e-06
1.75e-06
1.75e-06
1.75e-06
1.75e-06
1.75e-06
1.75e-06
1.75e-06
1.75e-06
1.75e-06
1.75e-06
1.75e-06
1.75e-06
1.75e-06
1.75e-06
1.75e-06
1.75e-06
1.75e-06
1.75e-06
1.75e-06
1.75e-06
1.75e-06
1.75e-06
1.75e-06
1.75e-06
1.75e-06
1.75e-06
1.75e-06
1.75e-06
1.75e-06
1.75e-06
1.75e-06
1.75e-06
1.75e-06
1.75e-06
1.75e-06
1.75e-06
1.75e-06
1.75e-06
1.75e-06
1.75e-06
1.75e-06
1.75e-06
1.75e-06
1.75e-06
1.75e-06
1.75e-06
1.75e-06
1.75e-06
1.75e-06
1.75e-06
1.75e-06
1.75e-06
1.75e-06
1.75e-06
1.75e-06
1.75e-06
1.75e-06
1.75e-06
1.75e-06
1.75e-06
1.75e-06
1.75e-06
1.75e-06
1.75e-06
1.75e-06
1.75e-06
1.75e-06
1.75e-06
1.75e-06
1.75e-06
1.75e-06
1.75e-06
1.75e-06
1.75e-06
1.75e-06
1.75e-06
1.75e-06
1.75e-06
1.75e-06
1.75e-06
1.75e-06
1.75e-06
1.75e-06
1.75e-06
1.75e-06
1.75e-06
1.75e-06
1.75e-06
1.75e-06
1.75e-06
1.75e-06
1.75e-06
1.75e-06
1.75e-06
1.75e-06
1.75e-06
1.75e-06
1.75e-06
1.75e-06
1.75e-06
1.75e-06
1.75e-06
1.75e-06
1.75e-06
1.75e-06
1.75e-06
1.75e-06
1.75e-06
1.75e-06
1.75e-06
1.75e-06
1.75e-06
1.75e-06
1.75e-06
1.75e-06
1.75e-06
1.75e-06
1.75e-06
1.75e-06
1.75e-06
1.75e-06
1.75e-06
1.75e-06
1.75e-06
1.75e-06
1.75e-06
1.75e-06
1.75e-06
1.75e-06
1.75e-06
1.75e-06
1.75e-06
1.75e-06
1.75e-06
1.75e-06
1.75e-06
1.75e-06
1.75e-06
1.75e-06
1.75e-06
1.75e-06
1.75e-06
1.75e-06
1.75e-06
1.75e-06
1.75e-06
1.75e-06
1.75e-06
1.75e-06
1.75e-06
1.75e-06
1.75e-06
1.75e-06
1.75e-06
1.75e-06
1.75e-06
1.75e-06
1.75e-06
1.75e-06
1.75e-06
1.75e-06
1.75e-06
1.75e-06
1.75e-06
1.75e-06
1.75e-06
1.75e-06
1.75e-06
1.75e-06
1.75e-06
1.75e-06
1.75e-06
1.75e-06
1.75e-06
1.75e-06
1.75e-06
1.75e-06
1.75e-06
1.75e-06
1.75e-06
1.75e-06
1.75e-06
1.75e-06
1.75e-06
1.75e-06
1.75e-06
1.75e-06
1.75e-06
1.75e-06
1.75e-06
1.75e-06
1.75e-06
1.75e-06
1.75e-06
1.75e-06
1.75e-06
1.75e-06
1.75e-06
1.75e-06
1.75e-06
1.75e-06
1.75e-06
1.75e-06
1.75e-06
1.75e-06
1.75e-06
1.75e-06
1.75e-06
1.75e-06
1.75e-06
1.75e-06
1.75e-06
1.75e-06
1.75e-06
1.75e-06
1.75e-06
1.75e-06
1.75e-06
1.75e-06
1.75e-06
1.75e-06
1.75e-06
1.75e-06
1.75e-06
1.75e-06
1.75e-06
1.75e-06
1.75e-06
1.75e-06
1.75e-06
1.75e-06
1.75e-06
1.75e-06
1.75e-06
1.75e-06
1.75e-06
1.75e-06
1.75e-06
1.75e-06
1.75e-06
1.75e-06
1.75e-06
1.75e-06
1.75e-06
1.75e-06
1.75e-06
1.75e-06
1.75e-06
1.75e-06
1.75e-06
1.75e-06
1.75e-06
1.75e-06
1.75e-06
1.75e-06
1.75e-06
1.75e-06
1.75e-06
1.75e-06
1.75e-06
1.75e-06
1.75e-06
1.75e-06
1.75e-06
1.75e-06
1.75e-06
1.75e-06
1.75e-06
1.75e-06
1.75e-06
1.75e-06
1.75e-06
1.75e-06
1.75e-06
1.75e-06
1.75e-06
1.75e-06
1.75e-06
1.75e-06
1.75e-06
1.75e-06
1.75e-06
1.75e-06
1.75e-06
1.75e-06
1.75e-06
1.75e-06
1.75e-06
1.75e-06
1.75e-06
1.75e-06
1.75e-06
1.75e-06
1.75e-06
1.75e-06
1.75e-06
1.75e-06
1.75e-06
1.75e-06
1.75e-06
1.75e-06